18
	Energy:      -5.3656443
C         -4.83669        1.84403       -0.00826
H         -3.82244        2.24867       -0.00737
H         -5.55212        2.65932       -0.12247
H         -5.02427        1.32651        0.93481
H         -4.95148        1.14476       -0.83904
N         -1.73989        0.27200       -0.03431
N         -0.99515       -0.55245       -0.00017
C         -0.27774        3.41437        0.01039
C          0.69820        4.56823       -0.00282
H          0.21813        2.50146        0.35284
H         -0.67667        3.23554       -0.99262
H         -1.11567        3.62449        0.68181
H          1.53379        4.35579       -0.67640
H          1.09988        4.74201        0.99987
H          0.20590        5.48448       -0.34147
C         -5.25813        5.55208        0.02965
O         -6.45578        5.53108        0.01616
O         -4.06211        5.56624        0.04281
