15
	Energy:      -5.3239070
C         -4.86184        1.87576       -0.00834
H         -3.86693        2.32630       -0.00861
H         -5.61481        2.65882       -0.11980
H         -5.02208        1.34721        0.93395
H         -4.94318        1.17109       -0.83891
N         -1.75097        0.08582       -0.04979
N         -0.90738       -0.63668        0.00296
C         -0.26813        3.42493        0.01457
C          0.70037        4.58568       -0.00392
H          0.23202        2.51522        0.35953
H         -0.66714        3.24049       -0.98734
H         -1.10643        3.63311        0.68610
H          1.53752        4.37664       -0.67663
H          1.10085        4.76767        0.99784
H          0.20191        5.49717       -0.34681
